# vtk DataFile Version 3.0
vtk output
ASCII
DATASET UNSTRUCTURED_GRID
POINTS 1814 double
8.250000e-01	2.410000e-02	0.0	6.750000e-01	-2.600000e-02	0.0	1.000000e+01	0.000000e+00	0.0	0.000000e+00	1.000000e+01	0.0	-1.000000e+01	0.000000e+00	0.0	0.000000e+00	-1.000000e+01	0.0	8.200833e-01	2.456923e-02	0.0	8.151549e-01	2.490001e-02	0.0	8.102190e-01	2.508537e-02	0.0	8.052802e-01	2.517163e-02	0.0	8.003408e-01	2.521650e-02	0.0	7.954013e-01	2.523132e-02	0.0	7.904618e-01	2.520483e-02	0.0	7.855224e-01	2.516420e-02	0.0	7.805833e-01	2.509529e-02	0.0	7.756466e-01	2.493036e-02	0.0	7.707124e-01	2.469981e-02	0.0	7.657796e-01	2.444058e-02	0.0	7.608526e-01	2.409097e-02	0.0	7.559367e-01	2.360940e-02	0.0	7.510329e-01	2.301599e-02	0.0	7.461350e-01	2.237616e-02	0.0	7.412476e-01	2.166038e-02	0.0	7.363776e-01	2.083490e-02	0.0	7.315364e-01	1.985529e-02	0.0	7.267391e-01	1.867961e-02	0.0	7.219830e-01	1.734668e-02	0.0	7.172706e-01	1.586641e-02	0.0	7.126090e-01	1.423348e-02	0.0	7.080114e-01	1.242844e-02	0.0	7.034993e-01	1.041951e-02	0.0	6.990960e-01	8.182443e-03	0.0	6.948375e-01	5.681373e-03	0.0	6.907683e-01	2.883278e-03	0.0	6.869638e-01	-2.636363e-04	0.0	6.834740e-01	-3.757330e-03	0.0	6.802886e-01	-7.530685e-03	0.0	6.775300e-01	-1.162111e-02	0.0	6.758043e-01	-1.623651e-02	0.0	6.748154e-01	-2.107458e-02	0.0	6.702417e-01	-2.749451e-02	0.0	6.655309e-01	-2.913408e-02	0.0	6.607818e-01	-3.065779e-02	0.0	6.559553e-01	-3.191393e-02	0.0	6.510686e-01	-3.291155e-02	0.0	6.461471e-01	-3.372292e-02	0.0	6.412103e-01	-3.443514e-02	0.0	6.362646e-01	-3.508362e-02	0.0	6.313132e-01	-3.568635e-02	0.0	6.263576e-01	-3.625413e-02	0.0	6.213989e-01	-3.679405e-02	0.0	6.164378e-01	-3.731109e-02	0.0	6.114747e-01	-3.780888e-02	0.0	6.065099e-01	-3.829024e-02	0.0	6.015438e-01	-3.875739e-02	0.0	5.965762e-01	-3.920718e-02	0.0	5.916058e-01	-3.962671e-02	0.0	5.866332e-01	-4.001780e-02	0.0	5.816586e-01	-4.038333e-02	0.0	5.766824e-01	-4.072621e-02	0.0	5.717049e-01	-4.104935e-02	0.0	5.667263e-01	-4.135568e-02	0.0	5.617468e-01	-4.164815e-02	0.0	5.567668e-01	-4.192969e-02	0.0	5.517863e-01	-4.220326e-02	0.0	5.468053e-01	-4.246851e-02	0.0	5.418235e-01	-4.271610e-02	0.0	5.368408e-01	-4.294680e-02	0.0	5.318574e-01	-4.316237e-02	0.0	5.268735e-01	-4.336458e-02	0.0	5.218892e-01	-4.355521e-02	0.0	5.169044e-01	-4.373603e-02	0.0	5.119194e-01	-4.390883e-02	0.0	5.069342e-01	-4.407538e-02	0.0	5.019488e-01	-4.423747e-02	0.0	4.969633e-01	-4.439518e-02	0.0	4.919775e-01	-4.454318e-02	0.0	4.869914e-01	-4.468169e-02	0.0	4.820051e-01	-4.481159e-02	0.0	4.770186e-01	-4.493378e-02	0.0	4.720319e-01	-4.504914e-02	0.0	4.670451e-01	-4.515858e-02	0.0	4.620582e-01	-4.526297e-02	0.0	4.570712e-01	-4.536322e-02	0.0	4.520841e-01	-4.546022e-02	0.0	4.470970e-01	-4.555416e-02	0.0	4.421098e-01	-4.564264e-02	0.0	4.371224e-01	-4.572563e-02	0.0	4.321350e-01	-4.580342e-02	0.0	4.271476e-01	-4.587630e-02	0.0	4.221600e-01	-4.594458e-02	0.0	4.171724e-01	-4.600856e-02	0.0	4.121848e-01	-4.606852e-02	0.0	4.071971e-01	-4.612477e-02	0.0	4.022093e-01	-4.617761e-02	0.0	3.972216e-01	-4.622731e-02	0.0	3.922338e-01	-4.627386e-02	0.0	3.872460e-01	-4.631695e-02	0.0	3.822581e-01	-4.635630e-02	0.0	3.772702e-01	-4.639160e-02	0.0	3.722823e-01	-4.642256e-02	0.0	3.672944e-01	-4.644888e-02	0.0	3.623064e-01	-4.647027e-02	0.0	3.573184e-01	-4.648641e-02	0.0	3.523304e-01	-4.649702e-02	0.0	3.473424e-01	-4.650195e-02	0.0	3.423544e-01	-4.650180e-02	0.0	3.373664e-01	-4.649667e-02	0.0	3.323784e-01	-4.648657e-02	0.0	3.273904e-01	-4.647149e-02	0.0	3.224024e-01	-4.645144e-02	0.0	3.174145e-01	-4.642640e-02	0.0	3.124266e-01	-4.639640e-02	0.0	3.074387e-01	-4.636141e-02	0.0	3.024508e-01	-4.632146e-02	0.0	2.974630e-01	-4.627689e-02	0.0	2.924752e-01	-4.622950e-02	0.0	2.874875e-01	-4.617877e-02	0.0	2.824998e-01	-4.612382e-02	0.0	2.775121e-01	-4.606373e-02	0.0	2.725246e-01	-4.599764e-02	0.0	2.675371e-01	-4.592463e-02	0.0	2.625497e-01	-4.584382e-02	0.0	2.575625e-01	-4.575431e-02	0.0	2.525755e-01	-4.565522e-02	0.0	2.475887e-01	-4.554624e-02	0.0	2.426020e-01	-4.543035e-02	0.0	2.376155e-01	-4.530762e-02	0.0	2.326292e-01	-4.517744e-02	0.0	2.276431e-01	-4.503923e-02	0.0	2.226573e-01	-4.489239e-02	0.0	2.176717e-01	-4.473633e-02	0.0	2.126864e-01	-4.457046e-02	0.0	2.077015e-01	-4.439419e-02	0.0	2.027171e-01	-4.420693e-02	0.0	1.977330e-01	-4.400799e-02	0.0	1.927495e-01	-4.379700e-02	0.0	1.877664e-01	-4.357532e-02	0.0	1.827837e-01	-4.334400e-02	0.0	1.778015e-01	-4.310377e-02	0.0	1.728197e-01	-4.285500e-02	0.0	1.678383e-01	-4.259781e-02	0.0	1.628574e-01	-4.233199e-02	0.0	1.578770e-01	-4.205697e-02	0.0	1.528972e-01	-4.177159e-02	0.0	1.479182e-01	-4.147209e-02	0.0	1.429409e-01	-4.114406e-02	0.0	1.379656e-01	-4.078855e-02	0.0	1.329920e-01	-4.041019e-02	0.0	1.280197e-01	-4.001415e-02	0.0	1.230483e-01	-3.960776e-02	0.0	1.180765e-01	-3.920574e-02	0.0	1.131360e-01	-3.893347e-02	0.0	1.081762e-01	-3.840417e-02	0.0	1.032165e-01	-3.787343e-02	0.0	9.825732e-02	-3.733784e-02	0.0	9.329916e-02	-3.679300e-02	0.0	8.834247e-02	-3.623492e-02	0.0	8.338796e-02	-3.565781e-02	0.0	7.843699e-02	-3.505112e-02	0.0	7.349287e-02	-3.439122e-02	0.0	6.855769e-02	-3.366740e-02	0.0	6.363195e-02	-3.288192e-02	0.0	5.871631e-02	-3.203546e-02	0.0	5.381061e-02	-3.113320e-02	0.0	4.891347e-02	-3.018549e-02	0.0	4.403198e-02	-2.916060e-02	0.0	3.917352e-02	-2.803164e-02	0.0	3.434085e-02	-2.679688e-02	0.0	2.953784e-02	-2.545181e-02	0.0	2.478800e-02	-2.392988e-02	0.0	2.009644e-02	-2.223661e-02	0.0	1.551032e-02	-2.027948e-02	0.0	1.112795e-02	-1.790062e-02	0.0	7.047202e-03	-1.503797e-02	0.0	3.675123e-03	-1.139161e-02	0.0	1.300145e-03	-7.015855e-03	0.0	1.326638e-04	-2.176957e-03	0.0	2.217383e-04	2.793605e-03	0.0	1.540030e-03	7.590842e-03	0.0	4.036241e-03	1.189934e-02	0.0	7.536443e-03	1.542380e-02	0.0	1.166220e-02	1.822125e-02	0.0	1.607252e-02	2.054810e-02	0.0	2.067942e-02	2.245653e-02	0.0	2.537814e-02	2.412978e-02	0.0	3.013517e-02	2.562907e-02	0.0	3.494313e-02	2.695651e-02	0.0	3.977903e-02	2.817856e-02	0.0	4.464058e-02	2.929413e-02	0.0	4.952465e-02	3.030673e-02	0.0	5.442291e-02	3.124862e-02	0.0	5.932980e-02	3.214441e-02	0.0	6.424671e-02	3.298342e-02	0.0	6.917368e-02	3.376116e-02	0.0	7.410996e-02	3.447739e-02	0.0	7.905357e-02	3.514141e-02	0.0	8.400164e-02	3.577125e-02	0.0	8.895348e-02	3.637079e-02	0.0	9.390869e-02	3.694185e-02	0.0	9.886703e-02	3.748509e-02	0.0	1.038284e-01	3.800026e-02	0.0	1.087926e-01	3.848638e-02	0.0	1.137596e-01	3.894339e-02	0.0	1.187290e-01	3.937456e-02	0.0	1.237004e-01	3.978112e-02	0.0	1.286736e-01	4.016467e-02	0.0	1.336484e-01	4.052730e-02	0.0	1.386246e-01	4.087128e-02	0.0	1.436018e-01	4.119899e-02	0.0	1.485799e-01	4.151275e-02	0.0	1.535588e-01	4.181381e-02	0.0	1.585385e-01	4.210168e-02	0.0	1.635189e-01	4.237782e-02	0.0	1.684998e-01	4.264333e-02	0.0	1.734813e-01	4.289891e-02	0.0	1.784632e-01	4.314500e-02	0.0	1.834456e-01	4.338179e-02	0.0	1.884284e-01	4.360928e-02	0.0	1.934117e-01	4.382724e-02	0.0	1.983953e-01	4.403525e-02	0.0	2.033794e-01	4.423247e-02	0.0	2.083640e-01	4.441824e-02	0.0	2.133489e-01	4.459309e-02	0.0	2.183342e-01	4.475763e-02	0.0	2.233198e-01	4.491242e-02	0.0	2.283057e-01	4.505808e-02	0.0	2.332918e-01	4.519519e-02	0.0	2.382782e-01	4.532434e-02	0.0	2.432647e-01	4.544614e-02	0.0	2.482514e-01	4.556116e-02	0.0	2.532382e-01	4.566898e-02	0.0	2.582253e-01	4.576674e-02	0.0	2.632125e-01	4.585504e-02	0.0	2.681999e-01	4.593476e-02	0.0	2.731874e-01	4.600680e-02	0.0	2.781750e-01	4.607205e-02	0.0	2.831626e-01	4.613140e-02	0.0	2.881503e-01	4.618574e-02	0.0	2.931381e-01	4.623597e-02	0.0	2.981259e-01	4.628298e-02	0.0	3.031137e-01	4.632705e-02	0.0	3.081015e-01	4.636635e-02	0.0	3.130894e-01	4.640067e-02	0.0	3.180774e-01	4.643002e-02	0.0	3.230653e-01	4.645439e-02	0.0	3.280533e-01	4.647378e-02	0.0	3.330413e-01	4.648820e-02	0.0	3.380293e-01	4.649764e-02	0.0	3.430173e-01	4.650211e-02	0.0	3.480053e-01	4.650160e-02	0.0	3.529933e-01	4.649577e-02	0.0	3.579813e-01	4.648351e-02	0.0	3.629693e-01	4.646523e-02	0.0	3.679572e-01	4.644153e-02	0.0	3.729452e-01	4.641301e-02	0.0	3.779331e-01	4.638027e-02	0.0	3.829209e-01	4.634389e-02	0.0	3.879088e-01	4.630448e-02	0.0	3.928966e-01	4.626263e-02	0.0	3.978844e-01	4.621894e-02	0.0	4.028723e-01	4.617412e-02	0.0	4.078601e-01	4.612868e-02	0.0	4.128478e-01	4.608182e-02	0.0	4.178356e-01	4.603267e-02	0.0	4.228234e-01	4.598032e-02	0.0	4.278110e-01	4.592389e-02	0.0	4.327987e-01	4.586247e-02	0.0	4.377862e-01	4.579518e-02	0.0	4.427737e-01	4.572113e-02	0.0	4.477610e-01	4.563941e-02	0.0	4.527482e-01	4.554920e-02	0.0	4.577353e-01	4.545055e-02	0.0	4.627221e-01	4.534434e-02	0.0	4.677089e-01	4.523146e-02	0.0	4.726955e-01	4.511279e-02	0.0	4.776819e-01	4.498925e-02	0.0	4.826683e-01	4.486171e-02	0.0	4.876546e-01	4.473107e-02	0.0	4.926409e-01	4.459822e-02	0.0	4.976271e-01	4.446405e-02	0.0	5.026133e-01	4.432929e-02	0.0	5.075994e-01	4.419331e-02	0.0	5.125855e-01	4.405543e-02	0.0	5.175716e-01	4.391505e-02	0.0	5.225575e-01	4.377159e-02	0.0	5.275433e-01	4.362444e-02	0.0	5.325291e-01	4.347302e-02	0.0	5.375146e-01	4.331672e-02	0.0	5.425000e-01	4.315496e-02	0.0	5.474852e-01	4.298715e-02	0.0	5.524702e-01	4.281293e-02	0.0	5.574549e-01	4.263352e-02	0.0	5.624395e-01	4.244914e-02	0.0	5.674240e-01	4.225980e-02	0.0	5.724082e-01	4.206550e-02	0.0	5.773922e-01	4.186624e-02	0.0	5.823760e-01	4.166202e-02	0.0	5.873597e-01	4.145284e-02	0.0	5.923431e-01	4.123870e-02	0.0	5.973263e-01	4.101960e-02	0.0	6.023092e-01	4.079519e-02	0.0	6.072919e-01	4.056363e-02	0.0	6.122742e-01	4.032595e-02	0.0	6.172563e-01	4.008321e-02	0.0	6.222382e-01	3.983620e-02	0.0	6.272199e-01	3.958546e-02	0.0	6.322014e-01	3.933141e-02	0.0	6.371828e-01	3.907434e-02	0.0	6.421640e-01	3.881443e-02	0.0	6.471451e-01	3.855179e-02	0.0	6.521260e-01	3.828537e-02	0.0	6.571062e-01	3.800526e-02	0.0	6.620851e-01	3.770492e-02	0.0	6.670630e-01	3.738797e-02	0.0	6.720413e-01	3.707595e-02	0.0	6.770208e-01	3.678419e-02	0.0	6.820012e-01	3.650926e-02	0.0	6.869820e-01	3.624092e-02	0.0	6.919627e-01	3.597123e-02	0.0	6.969429e-01	3.569285e-02	0.0	7.019221e-01	3.539703e-02	0.0	7.068995e-01	3.507131e-02	0.0	7.118744e-01	3.471065e-02	0.0	7.168473e-01	3.432167e-02	0.0	7.218187e-01	3
[...]
POINT_DATA 1814

SCALARS Density double 1
LOOKUP_TABLE default
1.216392e+00	1.200214e+00	1.224683e+00	1.225208e+00	1.225013e+00	1.224732e+00	1.210318e+00	1.212262e+00	1.212648e+00	1.211951e+00	1.212122e+00	1.211702e+00	1.211170e+00	1.210588e+00	1.209937e+00	1.209334e+00	1.208393e+00	1.207392e+00	1.206347e+00	1.205291e+00	1.204093e+00	1.202868e+00	1.201870e+00	1.200963e+00	1.200122e+00	1.199137e+00	1.197935e+00	1.196916e+00	1.196222e+00	1.195774e+00	1.195634e+00	1.196495e+00	1.197320e+00	1.198730e+00	1.200135e+00	1.201411e+00	1.202746e+00	1.206071e+00	1.209181e+00	1.201954e+00	1.220544e+00	1.212102e+00	1.209983e+00	1.208731e+00	1.207999e+00	1.208322e+00	1.208798e+00	1.209062e+00	1.209231e+00	1.209433e+00	1.209553e+00	1.209638e+00	1.209740e+00	1.209740e+00	1.209526e+00	1.209424e+00	1.209485e+00	1.209502e+00	1.209597e+00	1.209729e+00	1.209834e+00	1.209987e+00	1.210090e+00	1.210202e+00	1.210122e+00	1.210147e+00	1.210205e+00	1.210281e+00	1.210370e+00	1.210475e+00	1.210597e+00	1.210706e+00	1.210815e+00	1.210883e+00	1.210866e+00	1.210886e+00	1.210908e+00	1.210973e+00	1.211023e+00	1.211101e+00	1.211178e+00	1.211248e+00	1.211301e+00	1.211340e+00	1.211282e+00	1.211276e+00	1.211320e+00	1.211345e+00	1.211393e+00	1.211388e+00	1.211419e+00	1.211408e+00	1.211415e+00	1.211392e+00	1.211371e+00	1.211356e+00	1.211376e+00	1.211346e+00	1.211340e+00	1.211270e+00	1.211170e+00	1.211165e+00	1.211133e+00	1.211154e+00	1.211102e+00	1.211076e+00	1.211016e+00	1.210942e+00	1.210955e+00	1.210912e+00	1.210922e+00	1.210851e+00	1.210834e+00	1.210732e+00	1.210764e+00	1.210705e+00	1.210597e+00	1.210539e+00	1.210417e+00	1.210380e+00	1.210287e+00	1.210097e+00	1.209971e+00	1.209942e+00	1.209871e+00	1.209856e+00	1.209739e+00	1.209707e+00	1.209505e+00	1.209441e+00	1.209341e+00	1.209250e+00	1.209199e+00	1.209076e+00	1.208994e+00	1.208835e+00	1.208819e+00	1.208685e+00	1.208665e+00	1.208515e+00	1.208452e+00	1.208077e+00	1.208008e+00	1.207698e+00	1.207493e+00	1.207209e+00	1.207058e+00	1.207052e+00	1.206993e+00	1.207284e+00	1.207877e+00	1.205469e+00	1.204734e+00	1.206282e+00	1.205819e+00	1.205487e+00	1.205339e+00	1.204639e+00	1.204148e+00	1.203443e+00	1.203227e+00	1.202916e+00	1.202618e+00	1.202599e+00	1.201884e+00	1.201274e+00	1.200630e+00	1.200032e+00	1.199341e+00	1.198817e+00	1.198114e+00	1.196710e+00	1.195524e+00	1.196358e+00	1.200866e+00	1.210461e+00	1.240128e+00	1.253908e+00	1.256522e+00	1.252764e+00	1.248407e+00	1.243256e+00	1.233014e+00	1.228717e+00	1.224148e+00	1.223746e+00	1.222721e+00	1.222268e+00	1.221628e+00	1.221474e+00	1.220520e+00	1.220675e+00	1.220522e+00	1.220379e+00	1.220039e+00	1.219944e+00	1.219871e+00	1.220086e+00	1.220019e+00	1.220056e+00	1.219952e+00	1.220014e+00	1.219922e+00	1.219945e+00	1.219989e+00	1.220024e+00	1.220050e+00	1.220084e+00	1.220141e+00	1.220215e+00	1.220265e+00	1.220286e+00	1.220315e+00	1.220371e+00	1.220399e+00	1.220443e+00	1.220462e+00	1.220484e+00	1.220480e+00	1.220477e+00	1.220500e+00	1.220463e+00	1.220483e+00	1.220506e+00	1.220544e+00	1.220584e+00	1.220609e+00	1.220628e+00	1.220668e+00	1.220685e+00	1.220735e+00	1.220720e+00	1.220744e+00	1.220781e+00	1.220830e+00	1.220876e+00	1.220926e+00	1.220974e+00	1.221022e+00	1.221061e+00	1.221100e+00	1.221119e+00	1.221135e+00	1.221155e+00	1.221182e+00	1.221207e+00	1.221236e+00	1.221265e+00	1.221288e+00	1.221315e+00	1.221341e+00	1.221367e+00	1.221396e+00	1.221424e+00	1.221464e+00	1.221503e+00	1.221546e+00	1.221583e+00	1.221621e+00	1.221670e+00	1.221702e+00	1.221731e+00	1.221765e+00	1.221751e+00	1.221738e+00	1.221722e+00	1.221731e+00	1.221718e+00	1.221710e+00	1.221714e+00	1.221732e+00	1.221757e+00	1.221798e+00	1.221852e+00	1.221907e+00	1.221963e+00	1.222039e+00	1.222099e+00	1.222158e+00	1.222208e+00	1.222251e+00	1.222280e+00	1.222301e+00	1.222330e+00	1.222338e+00	1.222348e+00	1.222356e+00	1.222382e+00	1.222404e+00	1.222426e+00	1.222457e+00	1.222497e+00	1.222544e+00	1.222587e+00	1.222631e+00	1.222671e+00	1.222716e+00	1.222759e+00	1.222799e+00	1.222842e+00	1.222887e+00	1.222939e+00	1.222998e+00	1.223071e+00	1.223148e+00	1.223219e+00	1.223289e+00	1.223357e+00	1.223417e+00	1.223463e+00	1.223516e+00	1.223528e+00	1.223534e+00	1.223709e+00	1.223933e+00	1.224109e+00	1.224381e+00	1.224298e+00	1.224215e+00	1.224122e+00	1.224039e+00	1.223889e+00	1.223972e+00	1.224152e+00	1.224357e+00	1.224690e+00	1.224956e+00	1.225244e+00	1.225382e+00	1.225573e+00	1.225687e+00	1.225820e+00	1.225977e+00	1.226156e+00	1.226281e+00	1.226396e+00	1.226535e+00	1.226779e+00	1.227355e+00	1.227987e+00	1.228496e+00	1.228491e+00	1.228745e+00	1.229436e+00	1.230541e+00	1.229247e+00	1.224935e+00	1.225105e+00	1.225135e+00	1.225173e+00	1.225200e+00	1.225201e+00	1.225178e+00	1.225144e+00	1.225108e+00	1.225063e+00	1.224959e+00	1.224908e+00	1.224851e+00	1.224802e+00	1.224755e+00	1.224736e+00	1.224768e+00	1.224811e+00	1.224865e+00	1.224814e+00	1.225270e+00	1.225445e+00	1.223915e+00	1.225690e+00	1.222379e+00	1.224970e+00	1.219375e+00	1.223932e+00	1.220374e+00	1.221605e+00	1.225488e+00	1.224534e+00	1.219990e+00	1.225859e+00	1.224725e+00	1.219276e+00	1.212070e+00	1.225874e+00	1.218826e+00	1.223558e+00	1.227218e+00	1.217580e+00	1.226473e+00	1.217530e+00	1.217537e+00	1.217473e+00	1.225939e+00	1.226289e+00	1.224547e+00	1.217286e+00	1.225524e+00	1.224154e+00	1.226109e+00	1.225563e+00	1.226670e+00	1.224276e+00	1.218964e+00	1.216697e+00	1.216100e+00	1.216211e+00	1.224243e+00	1.225769e+00	1.227807e+00	1.216337e+00	1.216144e+00	1.216091e+00	1.215797e+00	1.201306e+00	1.222760e+00	1.216266e+00	1.226895e+00	1.226201e+00	1.225229e+00	1.224654e+00	1.224883e+00	1.215728e+00	1.217498e+00	1.227194e+00	1.228152e+00	1.223980e+00	1.226273e+00	1.225348e+00	1.224675e+00	1.224279e+00	1.223885e+00	1.223946e+00	1.214715e+00	1.214879e+00	1.226872e+00	1.223162e+00	1.214496e+00	1.215128e+00	1.214988e+00	1.215447e+00	1.224659e+00	1.215344e+00	1.215280e+00	1.225565e+00	1.223742e+00	1.224397e+00	1.226783e+00	1.227892e+00	1.225338e+00	1.224752e+00	1.224359e+00	1.223997e+00	1.223941e+00	1.223566e+00	1.223242e+00	1.223328e+00	1.182438e+00	1.193654e+00	1.223101e+00	1.232982e+00	1.234745e+00	1.229140e+00	1.225720e+00	1.224726e+00	1.215452e+00	1.224713e+00	1.214924e+00	1.224181e+00	1.225767e+00	1.224670e+00	1.212878e+00	1.213112e+00	1.212780e+00	1.215077e+00	1.206629e+00	1.216168e+00	1.214729e+00	1.214794e+00	1.214191e+00	1.214443e+00	1.225183e+00	1.214106e+00	1.215000e+00	1.223012e+00	1.223102e+00	1.215854e+00	1.213318e+00	1.225179e+00	1.220117e+00	1.222043e+00	1.225146e+00	1.224505e+00	1.222830e+00	1.222946e+00	1.223215e+00	1.223608e+00	1.224624e+00	1.224408e+00	1.224672e+00	1.234130e+00	1.212062e+00	1.212743e+00	1.212598e+00	1.223454e+00	1.223269e+00	1.223115e+00	1.213551e+00	1.228792e+00	1.214260e+00	1.226979e+00	1.226195e+00	1.224581e+00	1.224232e+00	1.214065e+00	1.213967e+00	1.225121e+00	1.224017e+00	1.223950e+00	1.213824e+00	1.227629e+00	1.222772e+00	1.222702e+00	1.222686e+00	1.222492e+00	1.223588e+00	1.223479e+00	1.223415e+00	1.214114e+00	1.225274e+00	1.224333e+00	1.227175e+00	1.225246e+00	1.223254e+00	1.213973e+00	1.222435e+00	1.210667e+00	1.222606e+00	1.222571e+00	1.222394e+00	1.222325e+00	1.222271e+00	1.222095e+00	1.224758e+00	1.224943e+00	1.219963e+00	1.213496e+00	1.208752e+00	1.210395e+00	1.185297e+00	1.216062e+00	1.213673e+00	1.212320e+00	1.221524e+00	1.212507e+00	1.181805e+00	1.212912e+00	1.212801e+00	1.212828e+00	1.213173e+00	1.213280e+00	1.224979e+00	1.217600e+00	1.213273e+00	1.212530e+00	1.212924e+00	1.212544e+00	1.212528e+00	1.225012e+00	1.225418e+00	1.226762e+00	1.209559e+00	1.224561e+00	1.211900e+00	1.214896e+00	1.211875e+00	1.228670e+00	1.229652e+00	1.223021e+00	1.224013e+00	1.224461e+00	1.224402e+00	1.224327e+00	1.196782e+00	1.222270e+00	1.214347e+00	1.225561e+00	1.192295e+00	1.223688e+00	1.208152e+00	1.225340e+00	1.200393e+00	1.210501e+00	1.218947e+00	1.225074e+00	1.224629e+00	1.226421e+00	1.226869e+00	1.224652e+00	1.226016e+00	1.217747e+00	1.220032e+00	1.223109e+00	1.217884e+00	1.234939e+00	1.240578e+00	1.237390e+00	1.223926e+00	1.223480e+00	1.213229e+00	1.212156e+00	1.210456e+00	1.222883e+00	1.212217e+00	1.224818e+00	1.224414e+00	1.179662e+00	1.224204e+00	1.221764e+00	1.221793e+00	1.221719e+00	1.221697e+00	1.221953e+00	1.225257e+00	1.210990e+00	1.210738e+00	1.222529e+00	1.208512e+00	1.217936e+00	1.209061e+00	1.224849e+00	1.222915e+00	1.225010e+00	1.212310e+00	1.221245e+00	1.212651e+00	1.207477e+00	1.225925e+00	1.209141e+00	1.211222e+00	1.221824e+00	1.222097e+00	1.209610e+00	1.216603e+00	1.211692e+00	1.211562e+00	1.205062e+00	1.223274e+00	1.215059e+00	1.192966e+00	1.223471e+00	1.223673e+00	1.211888e+00	1.210800e+00	1.225006e+00	1.222168e+00	1.222117e+00	1.222826e+00	1.212304e+00	1.212261e+00	1.217796e+00	1.214868e+00	1.222376e+00	1.209179e+00	1.223123e+00	1.224639e+00	1.222992e+00	1.212370e+00	1.212484e+00	1.222352e+00	1.222240e+00	1.222315e+00	1.222035e+00	1.210269e+00	1.212492e+00	1.212603e+00	1.216004e+00	1.212571e+00	1.211153e+00	1.212534e+00	1.212544e+00	1.217071e+00	1.211504e+00	1.228214e+00	1.211638e+00	1.201470e+00	1.211903e+00	1.225554e+00	1.225893e+00	1.206766e+00	1.186775e+00	1.217038e+00	1.225230e+00	1.211211e+00	1.227125e+00	1.223930e+00	1.225268e+00	1.216725e+00	1.223785e+00	1.225449e+00	1.225528e+00	1.222565e+00	1.222700e+00	1.221776e+00	1.225597e+00	1.225194e+00	1.223474e+00	1.222340e+00	1.223287e+00	1.223093e+00	1.224811e+00	1.222252e+00	1.225005e+00	1.231838e+00	1.218002e+00	1.216114e+00	1.214312e+00	1.216266e+00	1.221968e+00	1.224767e+00	1.225773e+00	1.221849e+00	1.220691e+00	1.221874e+00	1.224921e+00	1.225759e+00	1.221678e+00	1.221762e+00	1.225294e+00	1.231679e+00	1.221543e+00	1.212217e+00	1.221847e+00	1.225044e+00	1.221575e+00	1.223007e+00	1.210824e+00	1.221715e+00	1.225885e+00	1.225769e+00	1.216313e+00	1.214987e+00	1.225756e+00	1.224644e+00	1.211616e+00	1.222790e+00	1.224522e+00	1.224460e+00	1.215163e+00	1.221275e+00	1.225171e+00	1.224510e+00	1.221792e+00	1.208065e+00	1.211051e+00	1.211232e+00	1.216288e+00	1.215543e+00	1.222013e+00	1.207035e+00	1.211048e+00	1.211141e+00	1.210681e+00	1.228977e+00	1.225034e+00	1.187049e+00	1.224545e+00	1.225774e+00	1.213179e+00	1.224523e+00	1.229126e+00	1.211165e+00	1.229276e+00	1.190028e+00	1.222928e+00	1.224037e+00	1.221155e+00	1.221135e+00	1.211751e+00	1.208395e+00	1.212363e+00	1.221249e+00	1.221082e+00	1.222953e+00	1.226339e+00	1.222222e+00	1.222161e+00	1.201826e+00	1.216043e+00	1.226399e+00	1.222083e+00	1.222398e+00	1.224851e+00	1.223530e+00	1.220713e+00	1.212721e+00	1.224716e+00	1.224987e+00	1.215960e+00	1.209643e+00	1.224955e+00	1.226683e+00	1.226011e+00	1.197547e+00	1.220847e+00	1.226271e+00	1.224666e+00	1.224052e+00	1.199517e+00	1.208917e+00	1.223020e+00	1.223574e+00	1.211935e+00	1.226537e+00	1.223992e+00	1.190960e+00	1.224732e+00	1.219270e+00	1.206196e+00	1.219114e+00	1.224687e+00	1.216844e+00	1.225113e+00	1.210970e+00	1.224761e+00	1.218629e+00	1.221135e+00	1.223643e+00	1.224332e+00	1.189269e+00	1.222923e+00	1.216051e+00	1.222684e+00	1.208328e+00	1.225120e+00	1.221353e+00	1.225311e+00	1.225341e+00	1.211892e+00	1.215698e+00	1.214593e+00	1.212543e+00	1.224643e+00	1.224741e+00	1.214463e+00	1.225263e+00	1.227449e+00	1.211615e+00	1.212090e+00	1.212755e+00	1.224202e+00	1.214723e+00	1.238731e+00	1.225595e+00	1.225345e+00	1.226994e+00	1.224600e+00	1.212941e+00	1.226868e+00	1.227463e+00	1.231048e+00	1.224799e+00	1.221607e+00	1.222339e+00	1.225222e+00	1.224802e+00	1.215399e+00	1.221600e+00	1.216575e+00	1.212178e+00	1.225413e+00	1.220324e+00	1.216349e+00	1.221510e+00	1.222071e+00	1.224521e+00	1.212214e+00	1.218040e+00	1.226756e+00	1.220094e+00	1.224807e+00	1.211163e+00	1.226039e+00	1.227388e+00	1.224749e+00	1.220837e+00	1.215513e+00	1.215028e+00	1.222466e+00	1.211486e+00	1.211601e+00	1.215424e+00	1.200525e+00	1.225645e+00	1.247233e+00	1.211911e+00	1.212030e+00	1.213549e+00	1.221696e+00	1.224947e+00	1.216743e+00	1.216640e+00	1.222534e+00	1.225831e+00	1.225505e+00	1.215335e+00	1.220899e+00	1.225093e+00	1.224988e+00	1.225016e+00	1.225199e+00	1.225942e+00	1.226302e+00	1.215351e+00	1.210600e+00	1.224640e+00	1.199699e+00	1.206642e+00	1.210349e+00	1.223479e+00	1.224376e+00	1.218264e+00	1.210548e+00	1.222864e+00	1.225124e+00	1.216734e+00	1.216844e+00	1.222067e+00	1.210778e+00	1.214062e+00	1.224036e+00	1.205337e+00	1.208439e+00	1.223668e+00	1.222698e+00	1.210742e+00	1.217543e+00	1.211453e+00	1.225094e+00	1.221809e+00	1.224156e+00	1.208607e+00	1.226573e+00	1.225851e+00	1.221028e+00	1.218032e+00	1.218786e+00	1.216841e+00	1.227901e+00	1.221873e+00	1.223427e+00	1.224616e+00	1.224054e+00	1.211593e+00	1.215715e+00	1.221794e+00	1.223743e+00	1.224729e+00	1.211838e+00	1.222315e+00	1.213970e+00	1.215484e+00	1.222417e+00	1.213373e+00	1.224708e+00	1.225562e+00	1.225354e+00	1.228481e+00	1.213739e+00	1.224226e+00	1.227909e+00	1.221089e+00	1.225102e+00	1.225329e+00	1.225218e+00	1.216881e+00	1.213650e+00	1.225125e+00	1.211945e+00	1.215793e+00	1.225891e+00	1.210899e+00	1.223192e+00	1.209457e+00	1.209374e+00	1.224209e+00	1.188090e+00	1.224818e+00	1.215020e+00	1.215714e+00	1.224615e+00	1.208363e+00	1.199832e+00	1.219366e+00	1.225465e+00	1.224888e+00	1.209822e+00	1.209783e+00	1.220872e+00	1.221074e+00	1.213092e+00	1.222820e+00	1.231979e+00	1.213192e+00	1.224512e+00	1.224387e+00	1.210445e+00	1.215568e+00	1.203494e+00	1.214131e+00	1.204125e+00	1.224286e+00	1.226448e+00	1.226540e+00	1.224474e+00	1.204506e+00	1.211788e+00	1.225772e+00	1.223716e+00	1.218969e+00	1.206252e+00	1.222690e+00	1.225217e+00	1.193042e+00	1.221045e+00	1.220930e+00	1.207416e+00	1.196019e+00	1.224083e+00	1.225397e+00	1.222135e+00	1.221910e+00	1.206393e+00	1.206966e+00	1.224618e+00	1.213878e+00	1.214337e+00	1.214105e+00	1.215809e+00	1.220032e+00	1.219184e+00	1.224473e+00	1.215961e+00	1.225068e+00	1.217125e+00	1.228578e+00	1.223223e+00	1.223339e+00	1.223121e+00	1.223019e+00	1.205693e+00	1.214132e+00	1.210085e+00	1.216688e+00	1.224895e+00	1.225565e+00	1.214970e+00	1.203461e+00	1.222849e+00	1.222928e+00	1.221494e+00	1.224933e+00	1.221393e+00	1.216454e+00	1.225861e+00	1.224263e+00	1.210537e+00	1.222018e+00	1.222014e+00	1.212228e+00	1.214227e+00	1.209825e+00	1.225428e+00	1.224600e+00	1.225335e+00	1.211836e+00	1.211889e+00	1.222705e+00	1.222768e+00	1.221166e+00	1.226379e+00	1.222003e+00	1.221980e+00	1.221898e+00	1.210131e+00	1.221945e+00	1.210306e+00	1.211149e+00	1.208445e+00	1.224076e+00	1.216719e+00	1.225879e+00	1.214885e+00	1.212787e+00	1.215105e+00	1.210767e+00	1.214653e+00	1.225214e+00	1.225375e+00	1.225717e+00	1.223133e+00	1.224430e+00	1.208814e+00	1.187851e+00	1.188718e+00	1.225380e+00	1.211182e+00	1.222900e+00	1.218255e+00	1.226402e+00	1.225595e+00	1.211238e+00	1.228248e+00	1.212416e+00	1.210566e+00	1.210414e+00	1.226183e+00	1.224232e+00	1.225087e+00	1.220772e+00	1.217060e+00	1.213036e+00	1.197914e+00	1.227491e+00	1.221677e+00	1.224801e+00	1.221510e+00	1.221484e+00	1.204457e+00	1.214148e+00	1.211449e+00	1.192202e+00	1.212561e+00	1.211418e+00	1.211438e+00	1.224603e+00	1.194933e+00	1.207533e+00	1.224659e+00	1.214835e+00	1.215972e+00	1.211568e+00	1.211606e+00	1.224982e+00	1.215624e+00	1.191420e+00	1.209701e+00	1.225136e+00	1.225365e+00	1.221374e+00	1.221436e+00	1.179378e+00	1.212804e+00	1.223480e+00	1.213762e+00	1.228096e+00	1.211353e+00	1.222537e+00	1.214513e+00	1.218763e+00	1.223160e+00	1.225116e+00	1.211818e+00	1.211817e+00	1.215895e+00	1.216724e+00	1.225601e+00	1.180666e+00	1.221013e+00	1.211842e+00	1.211855e+00	1.224443e+00	1.223538e+00	1.220924e+00	1.209341e+00	1.216878e+00	1.221229e+00	1.221297e+00	1.210585e+00	1.210690e+00	1.220645e+00	1.211487e+00	1.210990e+00	1.214253e+00	1.211165e+00	1.224808e+00	1.224927e+00	1.222252e+00	1.223900e+00	1.207863e+00	1.223673e+00	1.223500e+00	1.223032e+00	1.224775e+00	1.223886e+00	1.225735e+00	1.225721e+00	1.225612e+00	1.200267e+00	1.210867e+00	1.221173e+00	1.221135e+00	1.218659e+00	1.226365e+00	1.210135e+00	1.210269e+00	1.209021e+00	1.214894e+00	1.222309e+00	1.208587e+00	1.222394e+00	1.224853e+00	1.217647e+00	1.202905e+00	1.224816e+00	1.204998e+00	1.210103e+00	1.210200e+00	1.211404e+00	1.220884e+00	1.222537e+00	1.225275e+00	1.224128e+00	1.211805e+00	1.211906e+00	1.211729e+00	1.213637e+00	1.211057e+00	1.221477e+00	1.226671e+00	1.223846e+00	1.225186e+00	1.226303e+00	1.226624e+00	1.215581e+00	1.208110e+00	1.221987e+00	1.188189e+00	1.195985e+00	1.207901e+00	1.223719e+00	1.223602e+00	1.224155e+00	1.220809e+00	1.209099e+00	1.220854e+00	1.211643e+00	1.209451e+00	1.209349e+00	1.220645e+00	1.223538e+00	1.225111e+00	1.211163e+00	1.211813e+00	1.215775e+00	1.220621e+00	1.216375e+00	1.222066e+00	1.210031e+00	1.221616e+00	1.221652e+00	1.219031e+00	1.225653e+00	1.222617e+00	1.225470e+00	1.214624e+00	1.212296e+00	1.202744e+00	1.215157e+00	1.203939e+00	1.221603e+00	1.224814e+00	1.208847e+00	1.213958e+00	1.205795e+00	1.206748e+00	1.209632e+00	1.223111e+00	1.214619e+00	1.226033e+00	1.206455e+00	1.210801e+00	1.190449e+00	1.228879e+00	1.210512e+00	1.221694e+00	1.224825e+00	1.224462e+00	1.226050e+00	1.202665e+00	1.222651e+00	1.210491e+00	1.210224e+00	1.211139e+00	1.190293e+00	1.210922e+00	1.225292e+00	1.211412e+00	1.204407e+00	1.210372e+00	1.211288e+00	1.211340e+00	1.211499e+00	1.211596e+00	1.192425e+00	1.230749e+00	1.223779e+00	1.209840e+00	1.211702e+00	1.227497e+00	1.219520e+00	1.211745e+00	1.224242e+00	1.219775e+00	1.228113e+00	1.218602e+00	1.220685e+00	1.211739e+00	1.225690e+00	1.197281e+00	1.224216e+00	1.229275e+00	1.211721e+00	1.211334e+00	1.223474e+00	1.222121e+00	1.223214e+00	1.223358e+00	1.211515e+00	1.210823e+00	1.223119e+00	1.223003e+00	1.213904e+00	1.227478e+00	1.222822e+00	1.222921e+00	1.222142e+00	1.222725e+00	1.211165e+00	1.210686e+00	1.209787e+00	1.222611e+00	1.222668e+00	1.222759e+00	1.210405e+00	1.221974e+00	1.221931e+00	1.222737e+00	1.223025e+00	1.221951e+00	1.221919e+00	1.221854e+00	1.221898e+00	1.223701e+00	1.221787e+00	1.225398e+00	1.223259e+00	1.211632e+00	1.210115e+00	1.210213e+00	1.223528e+00	1.220611e+00	1.225487e+00	1.222530e+00	1.209924e+00	1.225380e+00	1.210134e+00	1.222014e+00	1.227126e+00	1.222251e+00	1.222721e+00	1.222422e+00	1.225171e+00	1.225149e+00	1.224056e+00	1.225045e+00	1.194892e+00	1.224722e+00	1.223122e+00	1.229698e+00	1.230322e+00	1.226091e+00	1.223759e+00	1.223911e+00	1.221639e+00	1.213181e+00	1.224576e+00	1.223754e+00	1.224251e+00	1.219186e+00	1.225971e+00	1.225996e+00	1.222816e+00	1.221566e+00	1.227122e+00	1.225429e+00	1.224570e+00	1.224853e+00	1.219465e+00	1.221946e+00	1.221465e+00	1.213682e+00	1.213801e+00	1.224873e+00	1.214338e+00	1.224306e+00	1.221529e+00	1.223835e+00	1.221416e+00	1.217215e+00	1.221774e+00	1.224402e+00	1.225124e+00	1.220632e+00	1.223523e+00	1.223736e+00	1.225292e+00	1.224819e+00	1.226867e+00	1.221316e+00	1.221383e+00	1.222511e+00	1.223293e+00	1.220911e+00	1.206496e+00	1.199637e+00	1.214112e+00	1.203671e+00	1.223952e+00	1.224454e+00	1.220544e+00	1.221160e+00	1.221263e+00	1.212118e+00	1.221110e+00	1.225855e+00	1.213480e+00	1.210538e+00	1.212721e+00	1.216814e+00	1.217017e+00	1.211330e+00	1.223058e+00	1.224641e+00	1.225707e+00	1.221041e+00	1.221019e+00	1.213023e+00	1.220875e+00	1.214592e+00	1.220677e+00	1.220776e+00	1.212924e+00	1.216624e+00	1.215616e+00	1.207417e+00	1.216694e+00	1.224103e+00	1.223605e+00	1.215497e+00	1.224855e+00	1.213190e+00	1.220023e+00	1.225771e+00	1.216006e+00	1.213195e+00	1.213227e+00	1.227734e+00	1.218436e+00	1.223760e+00	1.212915e+00	1.206389e+00	1.224701e+00	1.216696e+00	1.217408e+00	1.226136e+00	1.226993e+00	1.220626e+00	1.224761e+00	1.228173e+00	1.218163e+00	1.220734e+00	1.220586e+00	1.224681e+00	1.222843e+00	1.217610e+00	1.224230e+00	1.225032e+00	1.226501e+00	1.224732e+00	1.225367e+00	1.215851e+00	1.225218e+00	1.224327e+00	1.221638e+00	1.212815e+00	1.220584e+00	1.212986e+00	1.224294e+00	1.214420e+00	1.211582e+00	1.214930e+00	1.224713e+00	1.224852e+00	1.226973e+00	1.224362e+00	1.223490e+00	1.223981e+00	1.224786e+00	1.220414e+00	1.227085e+00	1.222839e+00	1.211760e+00	1.215308e+00	1.216988e+00	1.223650e+00	1.213954e+00	1.227270e+00	1.224142e+00	1.209860e+00	1.215125e+00	1.224881e+00	1.224675e+00	1.211631e+00	1.204796e+00	1.215357e+00	1.215479e+00	1.213433e+00	1.214953e+00	1.213232e+00	1.210885e+00	1.225202e+00	1.215941e+00	1.203012e+00	1.212433