# vtk DataFile Version 3.0
vtk output
ASCII
DATASET UNSTRUCTURED_GRID
POINTS 342 double
8.250000e-01	2.410000e-02	0.0	6.750000e-01	-2.600000e-02	0.0	8.200833e-01	2.456923e-02	0.0	8.151549e-01	2.490001e-02	0.0	8.102190e-01	2.508537e-02	0.0	8.052802e-01	2.517163e-02	0.0	8.003408e-01	2.521650e-02	0.0	7.954013e-01	2.523132e-02	0.0	7.904618e-01	2.520483e-02	0.0	7.855224e-01	2.516420e-02	0.0	7.805833e-01	2.509529e-02	0.0	7.756466e-01	2.493036e-02	0.0	7.707124e-01	2.469981e-02	0.0	7.657796e-01	2.444058e-02	0.0	7.608526e-01	2.409097e-02	0.0	7.559367e-01	2.360940e-02	0.0	7.510329e-01	2.301599e-02	0.0	7.461350e-01	2.237616e-02	0.0	7.412476e-01	2.166038e-02	0.0	7.363776e-01	2.083490e-02	0.0	7.315364e-01	1.985529e-02	0.0	7.267391e-01	1.867961e-02	0.0	7.219830e-01	1.734668e-02	0.0	7.172706e-01	1.586641e-02	0.0	7.126090e-01	1.423348e-02	0.0	7.080114e-01	1.242844e-02	0.0	7.034993e-01	1.041951e-02	0.0	6.990960e-01	8.182443e-03	0.0	6.948375e-01	5.681373e-03	0.0	6.907683e-01	2.883278e-03	0.0	6.869638e-01	-2.636363e-04	0.0	6.834740e-01	-3.757330e-03	0.0	6.802886e-01	-7.530685e-03	0.0	6.775300e-01	-1.162111e-02	0.0	6.758043e-01	-1.623651e-02	0.0	6.748154e-01	-2.107458e-02	0.0	6.702417e-01	-2.749451e-02	0.0	6.655309e-01	-2.913408e-02	0.0	6.607818e-01	-3.065779e-02	0.0	6.559553e-01	-3.191393e-02	0.0	6.510686e-01	-3.291155e-02	0.0	6.461471e-01	-3.372292e-02	0.0	6.412103e-01	-3.443514e-02	0.0	6.362646e-01	-3.508362e-02	0.0	6.313132e-01	-3.568635e-02	0.0	6.263576e-01	-3.625413e-02	0.0	6.213989e-01	-3.679405e-02	0.0	6.164378e-01	-3.731109e-02	0.0	6.114747e-01	-3.780888e-02	0.0	6.065099e-01	-3.829024e-02	0.0	6.015438e-01	-3.875739e-02	0.0	5.965762e-01	-3.920718e-02	0.0	5.916058e-01	-3.962671e-02	0.0	5.866332e-01	-4.001780e-02	0.0	5.816586e-01	-4.038333e-02	0.0	5.766824e-01	-4.072621e-02	0.0	5.717049e-01	-4.104935e-02	0.0	5.667263e-01	-4.135568e-02	0.0	5.617468e-01	-4.164815e-02	0.0	5.567668e-01	-4.192969e-02	0.0	5.517863e-01	-4.220326e-02	0.0	5.468053e-01	-4.246851e-02	0.0	5.418235e-01	-4.271610e-02	0.0	5.368408e-01	-4.294680e-02	0.0	5.318574e-01	-4.316237e-02	0.0	5.268735e-01	-4.336458e-02	0.0	5.218892e-01	-4.355521e-02	0.0	5.169044e-01	-4.373603e-02	0.0	5.119194e-01	-4.390883e-02	0.0	5.069342e-01	-4.407538e-02	0.0	5.019488e-01	-4.423747e-02	0.0	4.969633e-01	-4.439518e-02	0.0	4.919775e-01	-4.454318e-02	0.0	4.869914e-01	-4.468169e-02	0.0	4.820051e-01	-4.481159e-02	0.0	4.770186e-01	-4.493378e-02	0.0	4.720319e-01	-4.504914e-02	0.0	4.670451e-01	-4.515858e-02	0.0	4.620582e-01	-4.526297e-02	0.0	4.570712e-01	-4.536322e-02	0.0	4.520841e-01	-4.546022e-02	0.0	4.470970e-01	-4.555416e-02	0.0	4.421098e-01	-4.564264e-02	0.0	4.371224e-01	-4.572563e-02	0.0	4.321350e-01	-4.580342e-02	0.0	4.271476e-01	-4.587630e-02	0.0	4.221600e-01	-4.594458e-02	0.0	4.171724e-01	-4.600856e-02	0.0	4.121848e-01	-4.606852e-02	0.0	4.071971e-01	-4.612477e-02	0.0	4.022093e-01	-4.617761e-02	0.0	3.972216e-01	-4.622731e-02	0.0	3.922338e-01	-4.627386e-02	0.0	3.872460e-01	-4.631695e-02	0.0	3.822581e-01	-4.635630e-02	0.0	3.772702e-01	-4.639160e-02	0.0	3.722823e-01	-4.642256e-02	0.0	3.672944e-01	-4.644888e-02	0.0	3.623064e-01	-4.647027e-02	0.0	3.573184e-01	-4.648641e-02	0.0	3.523304e-01	-4.649702e-02	0.0	3.473424e-01	-4.650195e-02	0.0	3.423544e-01	-4.650180e-02	0.0	3.373664e-01	-4.649667e-02	0.0	3.323784e-01	-4.648657e-02	0.0	3.273904e-01	-4.647149e-02	0.0	3.224024e-01	-4.645144e-02	0.0	3.174145e-01	-4.642640e-02	0.0	3.124266e-01	-4.639640e-02	0.0	3.074387e-01	-4.636141e-02	0.0	3.024508e-01	-4.632146e-02	0.0	2.974630e-01	-4.627689e-02	0.0	2.924752e-01	-4.622950e-02	0.0	2.874875e-01	-4.617877e-02	0.0	2.824998e-01	-4.612382e-02	0.0	2.775121e-01	-4.606373e-02	0.0	2.725246e-01	-4.599764e-02	0.0	2.675371e-01	-4.592463e-02	0.0	2.625497e-01	-4.584382e-02	0.0	2.575625e-01	-4.575431e-02	0.0	2.525755e-01	-4.565522e-02	0.0	2.475887e-01	-4.554624e-02	0.0	2.426020e-01	-4.543035e-02	0.0	2.376155e-01	-4.530762e-02	0.0	2.326292e-01	-4.517744e-02	0.0	2.276431e-01	-4.503923e-02	0.0	2.226573e-01	-4.489239e-02	0.0	2.176717e-01	-4.473633e-02	0.0	2.126864e-01	-4.457046e-02	0.0	2.077015e-01	-4.439419e-02	0.0	2.027171e-01	-4.420693e-02	0.0	1.977330e-01	-4.400799e-02	0.0	1.927495e-01	-4.379700e-02	0.0	1.877664e-01	-4.357532e-02	0.0	1.827837e-01	-4.334400e-02	0.0	1.778015e-01	-4.310377e-02	0.0	1.728197e-01	-4.285500e-02	0.0	1.678383e-01	-4.259781e-02	0.0	1.628574e-01	-4.233199e-02	0.0	1.578770e-01	-4.205697e-02	0.0	1.528972e-01	-4.177159e-02	0.0	1.479182e-01	-4.147209e-02	0.0	1.429409e-01	-4.114406e-02	0.0	1.379656e-01	-4.078855e-02	0.0	1.329920e-01	-4.041019e-02	0.0	1.280197e-01	-4.001415e-02	0.0	1.230483e-01	-3.960776e-02	0.0	1.180765e-01	-3.920574e-02	0.0	1.131360e-01	-3.893347e-02	0.0	1.081762e-01	-3.840417e-02	0.0	1.032165e-01	-3.787343e-02	0.0	9.825732e-02	-3.733784e-02	0.0	9.329916e-02	-3.679300e-02	0.0	8.834247e-02	-3.623492e-02	0.0	8.338796e-02	-3.565781e-02	0.0	7.843699e-02	-3.505112e-02	0.0	7.349287e-02	-3.439122e-02	0.0	6.855769e-02	-3.366740e-02	0.0	6.363195e-02	-3.288192e-02	0.0	5.871631e-02	-3.203546e-02	0.0	5.381061e-02	-3.113320e-02	0.0	4.891347e-02	-3.018549e-02	0.0	4.403198e-02	-2.916060e-02	0.0	3.917352e-02	-2.803164e-02	0.0	3.434085e-02	-2.679688e-02	0.0	2.953784e-02	-2.545181e-02	0.0	2.478800e-02	-2.392988e-02	0.0	2.009644e-02	-2.223661e-02	0.0	1.551032e-02	-2.027948e-02	0.0	1.112795e-02	-1.790062e-02	0.0	7.047202e-03	-1.503797e-02	0.0	3.675123e-03	-1.139161e-02	0.0	1.300145e-03	-7.015855e-03	0.0	1.326638e-04	-2.176957e-03	0.0	2.217383e-04	2.793605e-03	0.0	1.540030e-03	7.590842e-03	0.0	4.036241e-03	1.189934e-02	0.0	7.536443e-03	1.542380e-02	0.0	1.166220e-02	1.822125e-02	0.0	1.607252e-02	2.054810e-02	0.0	2.067942e-02	2.245653e-02	0.0	2.537814e-02	2.412978e-02	0.0	3.013517e-02	2.562907e-02	0.0	3.494313e-02	2.695651e-02	0.0	3.977903e-02	2.817856e-02	0.0	4.464058e-02	2.929413e-02	0.0	4.952465e-02	3.030673e-02	0.0	5.442291e-02	3.124862e-02	0.0	5.932980e-02	3.214441e-02	0.0	6.424671e-02	3.298342e-02	0.0	6.917368e-02	3.376116e-02	0.0	7.410996e-02	3.447739e-02	0.0	7.905357e-02	3.514141e-02	0.0	8.400164e-02	3.577125e-02	0.0	8.895348e-02	3.637079e-02	0.0	9.390869e-02	3.694185e-02	0.0	9.886703e-02	3.748509e-02	0.0	1.038284e-01	3.800026e-02	0.0	1.087926e-01	3.848638e-02	0.0	1.137596e-01	3.894339e-02	0.0	1.187290e-01	3.937456e-02	0.0	1.237004e-01	3.978112e-02	0.0	1.286736e-01	4.016467e-02	0.0	1.336484e-01	4.052730e-02	0.0	1.386246e-01	4.087128e-02	0.0	1.436018e-01	4.119899e-02	0.0	1.485799e-01	4.151275e-02	0.0	1.535588e-01	4.181381e-02	0.0	1.585385e-01	4.210168e-02	0.0	1.635189e-01	4.237782e-02	0.0	1.684998e-01	4.264333e-02	0.0	1.734813e-01	4.289891e-02	0.0	1.784632e-01	4.314500e-02	0.0	1.834456e-01	4.338179e-02	0.0	1.884284e-01	4.360928e-02	0.0	1.934117e-01	4.382724e-02	0.0	1.983953e-01	4.403525e-02	0.0	2.033794e-01	4.423247e-02	0.0	2.083640e-01	4.441824e-02	0.0	2.133489e-01	4.459309e-02	0.0	2.183342e-01	4.475763e-02	0.0	2.233198e-01	4.491242e-02	0.0	2.283057e-01	4.505808e-02	0.0	2.332918e-01	4.519519e-02	0.0	2.382782e-01	4.532434e-02	0.0	2.432647e-01	4.544614e-02	0.0	2.482514e-01	4.556116e-02	0.0	2.532382e-01	4.566898e-02	0.0	2.582253e-01	4.576674e-02	0.0	2.632125e-01	4.585504e-02	0.0	2.681999e-01	4.593476e-02	0.0	2.731874e-01	4.600680e-02	0.0	2.781750e-01	4.607205e-02	0.0	2.831626e-01	4.613140e-02	0.0	2.881503e-01	4.618574e-02	0.0	2.931381e-01	4.623597e-02	0.0	2.981259e-01	4.628298e-02	0.0	3.031137e-01	4.632705e-02	0.0	3.081015e-01	4.636635e-02	0.0	3.130894e-01	4.640067e-02	0.0	3.180774e-01	4.643002e-02	0.0	3.230653e-01	4.645439e-02	0.0	3.280533e-01	4.647378e-02	0.0	3.330413e-01	4.648820e-02	0.0	3.380293e-01	4.649764e-02	0.0	3.430173e-01	4.650211e-02	0.0	3.480053e-01	4.650160e-02	0.0	3.529933e-01	4.649577e-02	0.0	3.579813e-01	4.648351e-02	0.0	3.629693e-01	4.646523e-02	0.0	3.679572e-01	4.644153e-02	0.0	3.729452e-01	4.641301e-02	0.0	3.779331e-01	4.638027e-02	0.0	3.829209e-01	4.634389e-02	0.0	3.879088e-01	4.630448e-02	0.0	3.928966e-01	4.626263e-02	0.0	3.978844e-01	4.621894e-02	0.0	4.028723e-01	4.617412e-02	0.0	4.078601e-01	4.612868e-02	0.0	4.128478e-01	4.608182e-02	0.0	4.178356e-01	4.603267e-02	0.0	4.228234e-01	4.598032e-02	0.0	4.278110e-01	4.592389e-02	0.0	4.327987e-01	4.586247e-02	0.0	4.377862e-01	4.579518e-02	0.0	4.427737e-01	4.572113e-02	0.0	4.477610e-01	4.563941e-02	0.0	4.527482e-01	4.554920e-02	0.0	4.577353e-01	4.545055e-02	0.0	4.627221e-01	4.534434e-02	0.0	4.677089e-01	4.523146e-02	0.0	4.726955e-01	4.511279e-02	0.0	4.776819e-01	4.498925e-02	0.0	4.826683e-01	4.486171e-02	0.0	4.876546e-01	4.473107e-02	0.0	4.926409e-01	4.459822e-02	0.0	4.976271e-01	4.446405e-02	0.0	5.026133e-01	4.432929e-02	0.0	5.075994e-01	4.419331e-02	0.0	5.125855e-01	4.405543e-02	0.0	5.175716e-01	4.391505e-02	0.0	5.225575e-01	4.377159e-02	0.0	5.275433e-01	4.362444e-02	0.0	5.325291e-01	4.347302e-02	0.0	5.375146e-01	4.331672e-02	0.0	5.425000e-01	4.315496e-02	0.0	5.474852e-01	4.298715e-02	0.0	5.524702e-01	4.281293e-02	0.0	5.574549e-01	4.263352e-02	0.0	5.624395e-01	4.244914e-02	0.0	5.674240e-01	4.225980e-02	0.0	5.724082e-01	4.206550e-02	0.0	5.773922e-01	4.186624e-02	0.0	5.823760e-01	4.166202e-02	0.0	5.873597e-01	4.145284e-02	0.0	5.923431e-01	4.123870e-02	0.0	5.973263e-01	4.101960e-02	0.0	6.023092e-01	4.079519e-02	0.0	6.072919e-01	4.056363e-02	0.0	6.122742e-01	4.032595e-02	0.0	6.172563e-01	4.008321e-02	0.0	6.222382e-01	3.983620e-02	0.0	6.272199e-01	3.958546e-02	0.0	6.322014e-01	3.933141e-02	0.0	6.371828e-01	3.907434e-02	0.0	6.421640e-01	3.881443e-02	0.0	6.471451e-01	3.855179e-02	0.0	6.521260e-01	3.828537e-02	0.0	6.571062e-01	3.800526e-02	0.0	6.620851e-01	3.770492e-02	0.0	6.670630e-01	3.738797e-02	0.0	6.720413e-01	3.707595e-02	0.0	6.770208e-01	3.678419e-02	0.0	6.820012e-01	3.650926e-02	0.0	6.869820e-01	3.624092e-02	0.0	6.919627e-01	3.597123e-02	0.0	6.969429e-01	3.569285e-02	0.0	7.019221e-01	3.539703e-02	0.0	7.068995e-01	3.507131e-02	0.0	7.118744e-01	3.471065e-02	0.0	7.168473e-01	3.432167e-02	0.0	7.218187e-01	3.391569e-02	0.0	7.267900e-01	3.350753e-02	0.0	7.317622e-01	3.311065e-02	0.0	7.367346e-01	3.271609e-02	0.0	7.417068e-01	3.231966e-02	0.0	7.466789e-01	3.192136e-02	0.0	7.516508e-01	3.152103e-02	0.0	7.566226e-01	3.111866e-02	0.0	7.615945e-01	3.071801e-02	0.0	7.665662e-01	3.031506e-02	0.0	7.715370e-01	2.990123e-02	0.0	7.765057e-01	2.946324e-02	0.0	7.814704e-01	2.898129e-02	0.0	7.864328e-01	2.847694e-02	0.0	7.913982e-01	2.800244e-02	0.0	7.963678e-01	2.757432e-02	0.0	8.013380e-01	2.715338e-02	0.0	8.063049e-01	2.669536e-02	0.0	8.112698e-01	2.621555e-02	0.0	8.162357e-01	2.574654e-02	0.0	8.212019e-01	2.528105e-02	0.0	
CELLS 342	1026
2	1	36	2	36	37	2	37	38	2	38	39	2	39	40	2	40	41	2	41	42	2	42	43	2	43	44	2	44	45	2	45	46	2	46	47	2	47	48	2	48	49	2	49	50	2	50	51	2	51	52	2	52	53	2	53	54	2	54	55	2	55	56	2	56	57	2	57	58	2	58	59	2	59	60	2	60	61	2	61	62	2	62	63	2	63	64	2	64	65	2	65	66	2	66	67	2	67	68	2	68	69	2	69	70	2	70	71	2	71	72	2	72	73	2	73	74	2	74	75	2	75	76	2	76	77	2	77	78	2	78	79	2	79	80	2	80	81	2	81	82	2	82	83	2	83	84	2	84	85	2	85	86	2	86	87	2	87	88	2	88	89	2	89	90	2	90	91	2	91	92	2	92	93	2	93	94	2	94	95	2	95	96	2	96	97	2	97	98	2	98	99	2	99	100	2	100	101	2	101	102	2	102	103	2	103	104	2	104	105	2	105	106	2	106	107	2	107	108	2	108	109	2	109	110	2	110	111	2	111	112	2	112	113	2	113	114	2	114	115	2	115	116	2	116	117	2	117	118	2	118	119	2	119	120	2	120	121	2	121	122	2	122	123	2	123	124	2	124	125	2	125	126	2	126	127	2	127	128	2	128	129	2	129	130	2	130	131	2	131	132	2	132	133	2	133	134	2	134	135	2	135	136	2	136	137	2	137	138	2	138	139	2	139	140	2	140	141	2	141	142	2	142	143	2	143	144	2	144	145	2	145	146	2	146	147	2	147	148	2	148	149	2	149	150	2	150	151	2	151	152	2	152	153	2	153	154	2	154	155	2	155	156	2	156	157	2	157	158	2	158	159	2	159	160	2	160	161	2	161	162	2	162	163	2	163	164	2	164	165	2	165	166	2	166	167	2	167	168	2	168	169	2	169	170	2	170	171	2	171	172	2	172	173	2	173	174	2	174	175	2	175	176	2	176	177	2	177	178	2	178	179	2	179	180	2	180	181	2	181	182	2	182	183	2	183	184	2	184	185	2	185	186	2	186	187	2	187	188	2	188	189	2	189	190	2	190	191	2	191	192	2	192	193	2	193	194	2	194	195	2	195	196	2	196	197	2	197	198	2	198	199	2	199	200	2	200	201	2	201	202	2	202	203	2	203	204	2	204	205	2	205	206	2	206	207	2	207	208	2	208	209	2	209	210	2	210	211	2	211	212	2	212	213	2	213	214	2	214	215	2	215	216	2	216	217	2	217	218	2	218	219	2	219	220	2	220	221	2	221	222	2	222	223	2	223	224	2	224	225	2	225	226	2	226	227	2	227	228	2	228	229	2	229	230	2	230	231	2	231	232	2	232	233	2	233	234	2	234	235	2	235	236	2	236	237	2	237	238	2	238	239	2	239	240	2	240	241	2	241	242	2	242	243	2	243	244	2	244	245	2	245	246	2	246	247	2	247	248	2	248	249	2	249	250	2	250	251	2	251	252	2	252	253	2	253	254	2	254	255	2	255	256	2	256	257	2	257	258	2	258	259	2	259	260	2	260	261	2	261	262	2	262	263	2	263	264	2	264	265	2	265	266	2	266	267	2	267	268	2	268	269	2	269	270	2	270	271	2	271	272	2	272	273	2	273	274	2	274	275	2	275	276	2	276	277	2	277	278	2	278	279	2	279	280	2	280	281	2	281	282	2	282	283	2	283	284	2	284	285	2	285	286	2	286	287	2	287	288	2	288	289	2	289	290	2	290	291	2	291	292	2	292	293	2	293	294	2	294	295	2	295	296	2	296	297	2	297	298	2	298	299	2	299	300	2	300	301	2	301	302	2	302	303	2	303	304	2	304	305	2	305	306	2	306	307	2	307	308	2	308	309	2	309	310	2	310	311	2	311	312	2	312	313	2	313	314	2	314	315	2	315	316	2	316	317	2	317	318	2	318	319	2	319	320	2	320	321	2	321	322	2	322	323	2	323	324	2	324	325	2	325	326	2	326	327	2	327	328	2	328	329	2	329	330	2	330	331	2	331	332	2	332	333	2	333	334	2	334	335	2	335	336	2	336	337	2	337	338	2	338	339	2	339	340	2	340	341	2	341	0	2	0	2	2	2	3	2	3	4	2	4	5	2	5	6	2	6	7	2	7	8	2	8	9	2	9	10	2	10	11	2	11	12	2	12	13	2	13	14	2	14	15	2	15	16	2	16	17	2	17	18	2	18	19	2	19	20	2	20	21	2	21	22	2	22	23	2	23	24	2	24	25	2	25	26	2	26	27	2	27	28	2	28	29	2	29	30	2	30	31	2	31	32	2	32	33	2	33	34	2	34	35	2	35	1	
CELL_TYPES 342
3	3	3	3	3	3	3	3	3	3	3	3	3	3	3	3	3	3	3	3	3	3	3	3	3	3	3	3	3	3	3	3	3	3	3	3	3	3	3	3	3	3	3	3	3	3	3	3	3	3	3	3	3	3	3	3	3	3	3	3	3	3	3	3	3	3	3	3	3	3	3	3	3	3	3	3	3	3	3	3	3	3	3	3	3	3	3	3	3	3	3	3	3	3	3	3	3	3	3	3	3	3	3	3	3	3	3	3	3	3	3	3	3	3	3	3	3	3	3	3	3	3	3	3	3	3	3	3	3	3	3	3	3	3	3	3	3	3	3	3	3	3	3	3	3	3	3	3	3	3	3	3	3	3	3	3	3	3	3	3	3	3	3	3	3	3	3	3	3	3	3	3	3	3	3	3	3	3	3	3	3	3	3	3	3	3	3	3	3	3	3	3	3	3	3	3	3	3	3	3	3	3	3	3	3	3	3	3	3	3	3	3	3	3	3	3	3	3	3	3	3	3	3	3	3	3	3	3	3	3	3	3	3	3	3	3	3	3	3	3	3	3	3	3	3	3	3	3	3	3	3	3	3	3	3	3	3	3	3	3	3	3	3	3	3	3	3	3	3	3	3	3	3	3	3	3	3	3	3	3	3	3	3	3	3	3	3	3	3	3	3	3	3	3	3	3	3	3	3	3	3	3	3	3	3	3	3	3	3	3	3	3	3	3	3	3	3	3	3	3	3	3	3	3	3	3	3	3	3	3	3	3	3	3	3	3	3	3	3	3	3	3	
POINT_DATA 342

SCALARS Density double 1
LOOKUP_TABLE default
1.216392e+00	1.200214e+00	1.210318e+00	1.212262e+00	1.212648e+00	1.211951e+00	1.212122e+00	1.211702e+00	1.211170e+00	1.210588e+00	1.209937e+00	1.209334e+00	1.208393e+00	1.207392e+00	1.206347e+00	1.205291e+00	1.204093e+00	1.202868e+00	1.201870e+00	1.200963e+00	1.200122e+00	1.199137e+00	1.197935e+00	1.196916e+00	1.196222e+00	1.195774e+00	1.195634e+00	1.196495e+00	1.197320e+00	1.198730e+00	1.200135e+00	1.201411e+00	1.202746e+00	1.206071e+00	1.209181e+00	1.201954e+00	1.220544e+00	1.212102e+00	1.209983e+00	1.208731e+00	1.207999e+00	1.208322e+00	1.208798e+00	1.209062e+00	1.209231e+00	1.209433e+00	1.209553e+00	1.209638e+00	1.209740e+00	1.209740e+00	1.209526e+00	1.209424e+00	1.209485e+00	1.209502e+00	1.209597e+00	1.209729e+00	1.209834e+00	1.209987e+00	1.210090e+00	1.210202e+00	1.210122e+00	1.210147e+00	1.210205e+00	1.210281e+00	1.210370e+00	1.210475e+00	1.210597e+00	1.210706e+00	1.210815e+00	1.210883e+00	1.210866e+00	1.210886e+00	1.210908e+00	1.210973e+00	1.211023e+00	1.211101e+00	1.211178e+00	1.211248e+00	1.211301e+00	1.211340e+00	1.211282e+00	1.211276e+00	1.211320e+00	1.211345e+00	1.211393e+00	1.211388e+00	1.211419e+00	1.211408e+00	1.211415e+00	1.211392e+00	1.211371e+00	1.211356e+00	1.211376e+00	1.211346e+00	1.211340e+00	1.211270e+00	1.211170e+00	1.211165e+00	1.211133e+00	1.211154e+00	1.211102e+00	1.211076e+00	1.211016e+00	1.210942e+00	1.210955e+00	1.210912e+00	1.210922e+00	1.210851e+00	1.210834e+00	1.210732e+00	1.210764e+00	1.210705e+00	1.210597e+00	1.210539e+00	1.210417e+00	1.210380e+00	1.210287e+00	1.210097e+00	1.209971e+00	1.209942e+00	1.209871e+00	1.209856e+00	1.209739e+00	1.209707e+00	1.209505e+00	1.209441e+00	1.209341e+00	1.209250e+00	1.209199e+00	1.209076e+00	1.208994e+00	1.208835e+00	1.208819e+00	1.208685e+00	1.208665e+00	1.208515e+00	1.208452e+00	1.208077e+00	1.208008e+00	1.207698e+00	1.207493e+00	1.207209e+00	1.207058e+00	1.207052e+00	1.206993e+00	1.207284e+00	1.207877e+00	1.205469e+00	1.204734e+00	1.206282e+00	1.205819e+00	1.205487e+00	1.205339e+00	1.204639e+00	1.204148e+00	1.203443e+00	1.203227e+00	1.202916e+00	1.202618e+00	1.202599e+00	1.201884e+00	1.201274e+00	1.200630e+00	1.200032e+00	1.199341e+00	1.198817e+00	1.198114e+00	1.196710e+00	1.195524e+00	1.196358e+00	1.200866e+00	1.210461e+00	1.240128e+00	1.253908e+00	1.256522e+00	1.252764e+00	1.248407e+00	1.243256e+00	1.233014e+00	1.228717e+00	1.224148e+00	1.223746e+00	1.222721e+00	1.222268e+00	1.221628e+00	1.221474e+00	1.220520e+00	1.220675e+00	1.220522e+00	1.220379e+00	1.220039e+00	1.219944e+00	1.219871e+00	1.220086e+00	1.220019e+00	1.220056e+00	1.219952e+00	1.220014e+00	1.219922e+00	1.219945e+00	1.219989e+00	1.220024e+00	1.220050e+00	1.220084e+00	1.220141e+00	1.220215e+00	1.220265e+00	1.220286e+00	1.220315e+00	1.220371e+00	1.220399e+00	1.220443e+00	1.220462e+00	1.220484e+00	1.220480e+00	1.220477e+00	1.220500e+00	1.220463e+00	1.220483e+00	1.220506e+00	1.220544e+00	1.220584e+00	1.220609e+00	1.220628e+00	1.220668e+00	1.220685e+00	1.220735e+00	1.220720e+00	1.220744e+00	1.220781e+00	1.220830e+00	1.220876e+00	1.220926e+00	1.220974e+00	1.221022e+00	1.221061e+00	1.221100e+00	1.221119e+00	1.221135e+00	1.221155e+00	1.221182e+00	1.221207e+00	1.221236e+00	1.221265e+00	1.221288e+00	1.221315e+00	1.221341e+00	1.221367e+00	1.221396e+00	1.221424e+00	1.221464e+00	1.221503e+00	1.221546e+00	1.221583e+00	1.221621e+00	1.221670e+00	1.221702e+00	1.221731e+00	1.221765e+00	1.221751e+00	1.221738e+00	1.221722e+00	1.221731e+00	1.221718e+00	1.221710e+00	1.221714e+00	1.221732e+00	1.221757e+00	1.221798e+00	1.221852e+00	1.221907e+00	1.221963e+00	1.222039e+00	1.222099e+00	1.222158e+00	1.222208e+00	1.222251e+00	1.222280e+00	1.222301e+00	1.222330e+00	1.222338e+00	1.222348e+00	1.222356e+00	1.222382e+00	1.222404e+00	1.222426e+00	1.222457e+00	1.222497e+00	1.222544e+00	1.222587e+00	1.222631e+00	1.222671e+00	1.222716e+00	1.222759e+00	1.222799e+00	1.222842e+00	1.222887e+00	1.222939e+00	1.222998e+00	1.223071e+00	1.223148e+00	1.223219e+00	1.223289e+00	1.223357e+00	1.223417e+00	1.223463e+00	1.223516e+00	1.223528e+00	1.223534e+00	1.223709e+00	1.223933e+00	1.224109e+00	1.224381e+00	1.224298e+00	1.224215e+00	1.224122e+00	1.224039e+00	1.223889e+00	1.223972e+00	1.224152e+00	1.224357e+00	1.224690e+00	1.224956e+00	1.225244e+00	1.225382e+00	1.225573e+00	1.225687e+00	1.225820e+00	1.225977e+00	1.226156e+00	1.226281e+00	1.226396e+00	1.226535e+00	1.226779e+00	1.227355e+00	1.227987e+00	1.228496e+00	1.228491e+00	1.228745e+00	1.229436e+00	1.230541e+00	1.229247e+00	
VECTORS Momentum double
4.795050e+01	-1.546477e+00	0.0	5.062780e+01	2.236410e+00	0.0	3.461513e+01	3.113990e+00	0.0	2.221625e+01	1.228599e+00	0.0	1.350430e+01	5.015425e-01	0.0	6.744650e+00	7.535599e-01	0.0	8.988415e-01	2.832682e-01	0.0	-4.469573e+00	2.335424e-01	0.0	-9.580357e+00	8.950601e-02	0.0	-1.429819e+01	-6.013350e-02	0.0	-1.888077e+01	-3.304224e-01	0.0	-2.331306e+01	-8.467462e-01	0.0	-2.780600e+01	-1.252239e+00	0.0	-3.219622e+01	-1.802690e+00	0.0	-3.659477e+01	-2.834660e+00	0.0	-4.047877e+01	-4.330286e+00	0.0	-4.390910e+01	-5.488501e+00	0.0	-4.692458e+01	-6.479711e+00	0.0	-4.960184e+01	-7.792011e+00	0.0	-5.216085e+01	-9.504532e+00	0.0	-5.449015e+01	-1.207004e+01	0.0	-5.669256e+01	-1.478067e+01	0.0	-5.859295e+01	-1.742415e+01	0.0	-6.004726e+01	-1.999645e+01	0.0	-6.089954e+01	-2.259781e+01	0.0	-6.049403e+01	-2.562721e+01	0.0	-5.936995e+01	-2.821843e+01	0.0	-5.714101e+01	-3.103407e+01	0.0	-5.383394e+01	-3.388132e+01	0.0	-4.959639e+01	-3.684668e+01	0.0	-4.431818e+01	-3.978647e+01	0.0	-3.845009e+01	-4.132490e+01	0.0	-3.144192e+01	-4.087806e+01	0.0	-2.123132e+01	-3.990608e+01	0.0	-1.071895e+01	-3.578257e+01	0.0	-1.079228e+00	-2.502378e+01	0.0	6.964365e+01	1.719816e+01	0.0	7.726008e+01	2.202094e+01	0.0	8.542282e+01	2.205868e+01	0.0	9.008645e+01	2.034359e+01	0.0	9.253362e+01	1.689845e+01	0.0	9.324350e+01	1.450871e+01	0.0	9.333730e+01	1.285646e+01	0.0	9.332717e+01	1.179599e+01	0.0	9.319137e+01	1.105670e+01	0.0	9.302140e+01	1.042710e+01	0.0	9.285298e+01	9.940099e+00	0.0	9.273299e+01	9.507373e+00	0.0	9.266367e+01	9.143329e+00	0.0	9.262903e+01	8.879743e+00	0.0	9.261438e+01	8.607982e+00	0.0	9.262862e+01	8.097200e+00	0.0	9.263455e+01	7.578341e+00	0.0	9.255069e+01	7.063783e+00	0.0	9.240787e+01	6.601663e+00	0.0	9.223201e+01	6.199884e+00	0.0	9.203209e+01	5.851090e+00	0.0	9.184229e+01	5.545925e+00	0.0	9.165616e+01	5.302177e+00	0.0	9.150790e+01	5.110132e+00	0.0	9.141512e+01	4.939063e+00	0.0	9.136638e+01	4.712600e+00	0.0	9.131455e+01	4.382897e+00	0.0	9.120694e+01	4.092438e+00	0.0	9.106904e+01	3.826569e+00	0.0	9.091412e+01	3.593894e+00	0.0	9.075696e+01	3.393453e+00	0.0	9.059891e+01	3.231629e+00	0.0	9.044676e+01	3.106646e+00	0.0	9.031347e+01	3.014951e+00	0.0	9.021399e+01	2.913434e+00	0.0	9.014448e+01	2.774170e+00	0.0	9.007888e+01	2.594911e+00	0.0	8.999492e+01	2.428708e+00	0.0	8.989478e+01	2.283120e+00	0.0	8.978907e+01	2.150268e+00	0.0	8.968704e+01	2.033097e+00	0.0	8.960529e+01	1.929103e+00	0.0	8.954425e+01	1.838269e+00	0.0	8.947973e+01	1.776318e+00	0.0	8.941596e+01	1.722005e+00	0.0	8.937124e+01	1.648646e+00	0.0	8.933305e+01	1.548335e+00	0.0	8.929582e+01	1.452166e+00	0.0	8.926013e+01	1.363301e+00	0.0	8.922419e+01	1.276700e+00	0.0	8.919246e+01	1.190285e+00	0.0	8.915605e+01	1.114254e+00	0.0	8.911283e+01	1.045240e+00	0.0	8.907278e+01	9.852075e-01	0.0	8.904405e+01	9.267746e-01	0.0	8.905678e+01	8.701856e-01	0.0	8.903496e+01	8.079221e-01	0.0	8.902319e+01	7.430908e-01	0.0	8.900569e+01	6.804168e-01	0.0	8.901803e+01	6.207716e-01	0.0	8.897679e+01	5.298156e-01	0.0	8.895906e+01	4.438565e-01	0.0	8.894719e+01	3.437582e-01	0.0	8.893164e+01	2.516208e-01	0.0	8.890782e+01	1.498663e-01	0.0	8.886895e+01	6.665766e-02	0.0	8.883741e+01	-1.458897e-02	0.0	8.881694e+01	-1.140960e-01	0.0	8.882236e+01	-2.096574e-01	0.0	8.881789e+01	-3.050998e-01	0.0	8.882061e+01	-3.911256e-01	0.0	8.880026e+01	-4.779756e-01	0.0	8.876429e+01	-5.598069e-01	0.0	8.874737e+01	-6.534755e-01	0.0	8.874657e+01	-7.409516e-01	0.0	8.873581e+01	-7.899269e-01	0.0	8.872992e+01	-8.367072e-01	0.0	8.873888e+01	-9.045579e-01	0.0	8.875646e+01	-9.897272e-01	0.0	8.875797e+01	-1.093714e+00	0.0	8.876826e+01	-1.187009e+00	0.0	8.877338e+01	-1.318476e+00	0.0	8.880149e+01	-1.494229e+00	0.0	8.884089e+01	-1.676492e+00	0.0	8.887373e+01	-1.848638e+00	0.0	8.889904e+01	-1.991927e+00	0.0	8.891113e+01	-2.096101e+00	0.0	8.893473e+01	-2.212869e+00	0.0	8.893522e+01	-2.347641e+00	0.0	8.895795e+01	-2.501939e+00	0.0	8.896241e+01	-2.660677e+00	0.0	8.898013e+01	-2.839793e+00	0.0	8.898027e+01	-3.021843e+00	0.0	8.901111e+01	-3.207670e+00	0.0	8.905758e+01	-3.395187e+00	0.0	8.906000e+01	-3.623739e+00	0.0	8.912506e+01	-3.816833e+00	0.0	8.907462e+01	-4.021467e+00	0.0	8.910395e+01	-4.174505e+00	0.0	8.912492e+01	-4.320906e+00	0.0	8.915193e+01	-4.436219e+00	0.0	8.919165e+01	-4.580187e+00	0.0	8.917361e+01	-4.744046e+00	0.0	8.920945e+01	-4.925929e+00	0.0	8.926614e+01	-5.194213e+00	0.0	8.942432e+01	-5.652267e+00	0.0	8.959425e+01	-6.213079e+00	0.0	8.963128e+01	-6.638538e+00	0.0	8.963894e+01	-7.082341e+00	0.0	8.968800e+01	-7.290280e+00	0.0	8.957926e+01	-7.039219e+00	0.0	8.966372e+01	-6.271276e+00	0.0	9.072947e+01	-7.758430e+00	0.0	9.070743e+01	-9.547972e+00	0.0	9.044306e+01	-9.696218e+00	0.0	9.039411e+01	-9.760097e+00	0.0	9.034054e+01	-9.894522e+00	0.0	9.032582e+01	-1.010911e+01	0.0	9.031209e+01	-1.054695e+01	0.0	9.037234e+01	-1.141103e+01	0.0	9.041763e+01	-1.259482e+01	0.0	9.034602e+01	-1.379565e+01	0.0	9.021219e+01	-1.500942e+01	0.0	9.000482e+01	-1.586041e+01	0.0	8.982625e+01	-1.674578e+01	0.0	8.974843e+01	-1.803477e+01	0.0	8.966023e+01	-1.981819e+01	0.0	8.937591e+01	-2.174914e+01	0.0	8.910549e+01	-2.389828e+01	0.0	8.876309e+01	-2.661320e+01	0.0	8.779904e+01	-2.982121e+01	0.0	8.657684e+01	-3.419873e+01	0.0	8.324536e+01	-4.207859e+01	0.0	7.772412e+01	-4.994426e+01	0.0	6.688890e+01	-5.769933e+01	0.0	4.937003e+01	-6.178852e+01	0.0	2.416956e+01	-6.318388e+01	0.0	1.807913e+01	-4.058583e+01	0.0	1.830605e+01	-1.388873e+01	0.0	2.461826e+01	6.271139e+00	0.0	3.941274e+01	1.910272e+01	0.0	5.134359e+01	3.054296e+01	0.0	6.253856e+01	3.066352e+01	0.0	6.984390e+01	3.050701e+01	0.0	7.311964e+01	2.923620e+01	0.0	7.370954e+01	2.654926e+01	0.0	7.586683e+01	2.329137e+01	0.0	7.764739e+01	2.088051e+01	0.0	7.898943e+01	1.939157e+01	0.0	8.023851e+01	1.787465e+01	0.0	8.085801e+01	1.627861e+01	0.0	8.135798e+01	1.519963e+01	0.0	8.213945e+01	1.431314e+01	0.0	8.275298e+01	1.354444e+01	0.0	8.319885e+01	1.263932e+01	0.0	8.348555e+01	1.169615e+01	0.0	8.358956e+01	1.102245e+01	0.0	8.373845e+01	1.033887e+01	0.0	8.388679e+01	9.916836e+00	0.0	8.402089e+01	9.418744e+00	0.0	8.409534e+01	9.011545e+00	0.0	8.419805e+01	8.515255e+00	0.0	8.422368e+01	8.103476e+00	0.0	8.423089e+01	7.531102e+00	0.0	8.422757e+01	7.087846e+00	0.0	8.421521e+01	6.671354e+00	0.0	8.419486e+01	6.303883e+00	0.0	8.417100e+01	5.956107e+00	0.0	8.411283e+01	5.662054e+00	0.0	8.407808e+01	5.402652e+00	0.0	8.405509e+01	5.181963e+00	0.0	8.403384e+01	4.965389e+00	0.0	8.400641e+01	4.752210e+00	0.0	8.398470e+01	4.560042e+00	0.0	8.396831e+01	4.381191e+00	0.0	8.396260e+01	4.207250e+00	0.0	8.396132e+01	4.052186e+00	0.0	8.396742e+01	3.903501e+00	0.0	8.398112e+01	3.738548e+00	0.0	8.399516e+01	3.578231e+00	0.0	8.400711e+01	3.408616e+00	0.0	8.401306e+01	3.221986e+00	0.0	8.400903e+01	3.038466e+00	0.0	8.399030e+01	2.856200e+00	0.0	8.396841e+01	2.683555e+00	0.0	8.393829e+01	2.525974e+00	0.0	8.390716e+01	2.370613e+00	0.0	8.387456e+01	2.231613e+00	0.0	8.383831e+01	2.103148e+00	0.0	8.381420e+01	1.978459e+00	0.0	8.380578e+01	1.864422e+00	0.0	8.379534e+01	1.732435e+00	0.0	8.376501e+01	1.565367e+00	0.0	8.371618e+01	1.410677e+00	0.0	8.365693e+01	1.275444e+00	0.0	8.359239e+01	1.153124e+00	0.0	8.352333e+01	1.047140e+00	0.0	8.345472e+01	9.543025e-01	0.0	8.339018e+01	8.762762e-01	0.0	8.333934e+01	8.088266e-01	0.0	8.330936e+01	7.557098e-01	0.0	8.328971e+01	6.924920e-01	0.0	8.327056e+01	6.153907e-01	0.0	8.324585e+01	5.307515e-01	0.0	8.321926e+01	4.491591e-01	0.0	8.319280e+01	3.641968e-01	0.0	8.316693e+01	2.830778e-01	0.0	8.314163e+01	2.003964e-01	0.0	8.311509e+01	1.149137e-01	0.0	8.308940e+01	3.215117e-02	0.0	8.306549e+01	-5.566872e-02	0.0	8.303879e+01	-1.478901e-01	0.0	8.299471e+01	-2.492924e-01	0.0	8.293942e+01	-3.485358e-01	0.0	8.288001e+01	-4.363973e-01	0.0	8.281799e+01	-5.129160e-01	0.0	8.275099e+01	-5.768254e-01	0.0	8.268764e+01	-6.322549e-01	0.0	8.262961e+01	-6.755517e-01	0.0	8.258194e+01	-7.122765e-01	0.0	8.254691e+01	-7.420533e-01	0.0	8.252944e+01	-7.614500e-01	0.0	8.252807e+01	-7.741223e-01	0.0	8.253210e+01	-8.030974e-01	0.0	8.254003e+01	-8.464098e-01	0.0	8.255280e+01	-9.103137e-01	0.0	8.256790e+01	-9.836618e-01	0.0	8.258030e+01	-1.072282e+00	0.0	8.258399e+01	-1.173417e+00	0.0	8.257963e+01	-1.287097e+00	0.0	8.255653e+01	-1.418941e+00	0.0	8.251080e+01	-1.558240e+00	0.0	8.244543e+01	-1.692316e+00	0.0	8.236490e+01	-1.809715e+00	0.0	8.227468e+01	-1.910917e+00	0.0	8.217996e+01	-1.995882e+00	0.0	8.208196e+01	-2.063836e+00	0.0	8.198582e+01	-2.120361e+00	0.0	8.189417e+01	-2.162742e+00	0.0	8.181569e+01	-2.192935e+00	0.0	8.175485e+01	-2.212740e+00	0.0	8.171072e+01	-2.230870e+00	0.0	8.167876e+01	-2.254355e+00	0.0	8.165540e+01	-2.284860e+00	0.0	8.163259e+01	-2.328902e+00	0.0	8.160950e+01	-2.382414e+00	0.0	8.158548e+01	-2.446878e+00	0.0	8.155983e+01	-2.519924e+00	0.0	8.152917e+01	-2.600338e+00	0.0	8.149035e+01	-2.692688e+00	0.0	8.143727e+01	-2.790565e+00	0.0	8.137193e+01	-2.885105e+00	0.0	8.130399e+01	-2.966551e+00	0.0	8.123647e+01	-3.046512e+00	0.0	8.116793e+01	-3.124544e+00	0.0	8.109661e+01	-3.204967e+00	0.0	8.102359e+01	-3.283774e+00	0.0	8.094841e+01	-3.363520e+00	0.0	8.087120e+01	-3.440158e+00	0.0	8.079434e+01	-3.519057e+00	0.0	8.071881e+01	-3.594442e+00	0.0	8.063585e+01	-3.688070e+00	0.0	8.053239e+01	-3.787300e+00	0.0	8.041575e+01	-3.872600e+00	0.0	8.029694e+01	-3.942989e+00	0.0	8.018108e+01	-4.004718e+00	0.0	8.006915e+01	-4.057940e+00	0.0	7.996494e+01	-4.106306e+00	0.0	7.987208e+01	-4.152397e+00	0.0	7.979497e+01	-4.206186e+00	0.0	7.974142e+01	-4.255489e+00	0.0	7.968841e+01	-4.375204e+00	0.0	7.954619e+01	-4.619589e+00	0.0	7.923007e+01	-4.824511e+00	0.0	7.885531e+01	-4.879210e+00	0.0	7.863476e+01	-4.816068e+00	0.0	7.864862e+01	-4.497224e+00	0.0	7.873003e+01	-4.310161e+00	0.0	7.883111e+01	-4.289455e+00	0.0	7.892031e+01	-4.348634e+00	0.0	7.897331e+01	-4.534744e+00	0.0	7.893270e+01	-4.914593e+00	0.0	7.876402e+01	-5.425719e+00	0.0	7.838826e+01	-5.872125e+00	0.0	7.791542e+01	-6.109507e+00	0.0	7.743070e+01	-6.126524e+00	0.0	7.698185e+01	-6.138106e+00	0.0	7.668871e+01	-6.103257e+00	0.0	7.644868e+01	-6.087526e+00	0.0	7.618681e+01	-6.054261e+00	0.0	7.590758e+01	-6.062316e+00	0.0	7.562061e+01	-6.067101e+00	0.0	7.534582e+01	-6.078113e+00	0.0	7.510923e+01	-6.083718e+00	0.0	7.486725e+01	-6.182527e+00	0.0	7.454691e+01	-6.368451e+00	0.0	7.395613e+01	-6.723531e+00	0.0	7.309242e+01	-6.828224e+00	0.0	7.207522e+01	-6.784879e+00	0.0	7.138143e+01	-6.533374e+00	0.0	7.105936e+01	-6.128789e+00	0.0	7.047608e+01	-6.113602e+00	0.0	6.942408e+01	-6.096224e+00	0.0	6.793804e+01	-6.053981e+00	0.0	6.594857e+01	-5.444225e+00	0.0	6.069221e+01	-3.051135e+00	0.0	
SCALARS Energy double 1
LOOKUP_TABLE default